# sphere
311 atoms
318 bonds
0  angles
0  dihedrals
0  impropers

4 atom types
5 bond types
0  angle types
0  dihedral types
0  improper types

#Just to ensure that we have enough memory
1000 extra bond per atom
1000 extra special per atom

-37.500000 92.500000 xlo xhi
-20.000000 20.000000 ylo yhi

#Masses are not important since the system is in overdamped regieme
Masses

1 10
2 10
3 10
4 10


# radious of the cell is 7.5
# channel width is 20
Atoms

1 1 1 0.000000 0.000000 0.000000 
2 1 2 7.132924 2.317627 0.000000 
3 1 2 7.132924 -2.317627 0.000000 
4 1 2 4.408389 -6.067627 0.000000 
5 1 2 0.000000 -7.500000 0.000000 
6 1 2 -4.408389 -6.067627 0.000000 
7 1 2 -7.132924 -2.317627 0.000000 
8 1 2 -7.132924 2.317627 0.000000 
9 1 2 -4.408389 6.067627 0.000000 
10 1 2 -0.000000 7.500000 0.000000 
11 1 2 4.408389 6.067627 0.000000 
12 1 3 -5.000000 10.000000 0.000000 
13 1 3 -4.563758 10.000000 0.000000 
14 1 3 -4.127517 10.000000 0.000000 
15 1 3 -3.691275 10.000000 0.000000 
16 1 3 -3.255034 10.000000 0.000000 
17 1 3 -2.818792 10.000000 0.000000 
18 1 3 -2.382550 10.000000 0.000000 
19 1 3 -1.946309 10.000000 0.000000 
20 1 3 -1.510067 10.000000 0.000000 
21 1 3 -1.073826 10.000000 0.000000 
22 1 3 -0.637584 10.000000 0.000000 
23 1 3 -0.201342 10.000000 0.000000 
24 1 3 0.234899 10.000000 0.000000 
25 1 3 0.671141 10.000000 0.000000 
26 1 3 1.107383 10.000000 0.000000 
27 1 3 1.543624 10.000000 0.000000 
28 1 3 1.979866 10.000000 0.000000 
29 1 3 2.416107 10.000000 0.000000 
30 1 3 2.852349 10.000000 0.000000 
31 1 3 3.288591 10.000000 0.000000 
32 1 3 3.724832 10.000000 0.000000 
33 1 3 4.161074 10.000000 0.000000 
34 1 3 4.597315 10.000000 0.000000 
35 1 3 5.033557 10.000000 0.000000 
36 1 3 5.469799 10.000000 0.000000 
37 1 3 5.906040 10.000000 0.000000 
38 1 3 6.342282 10.000000 0.000000 
39 1 3 6.778523 10.000000 0.000000 
40 1 3 7.214765 10.000000 0.000000 
41 1 3 7.651007 10.000000 0.000000 
42 1 3 8.087248 10.000000 0.000000 
43 1 3 8.523490 10.000000 0.000000 
44 1 3 8.959732 10.000000 0.000000 
45 1 3 9.395973 10.000000 0.000000 
46 1 3 9.832215 10.000000 0.000000 
47 1 3 10.268456 10.000000 0.000000 
48 1 3 10.704698 10.000000 0.000000 
49 1 3 11.140940 10.000000 0.000000 
50 1 3 11.577181 10.000000 0.000000 
51 1 3 12.013423 10.000000 0.000000 
52 1 3 12.449664 10.000000 0.000000 
53 1 3 12.885906 10.000000 0.000000 
54 1 3 13.322148 10.000000 0.000000 
55 1 3 13.758389 10.000000 0.000000 
56 1 3 14.194631 10.000000 0.000000 
57 1 3 14.630872 10.000000 0.000000 
58 1 3 15.067114 10.000000 0.000000 
59 1 3 15.503356 10.000000 0.000000 
60 1 3 15.939597 10.000000 0.000000 
61 1 3 16.375839 10.000000 0.000000 
62 1 3 16.812081 10.000000 0.000000 
63 1 3 17.248322 10.000000 0.000000 
64 1 3 17.684564 10.000000 0.000000 
65 1 3 18.120805 10.000000 0.000000 
66 1 3 18.557047 10.000000 0.000000 
67 1 3 18.993289 10.000000 0.000000 
68 1 3 19.429530 10.000000 0.000000 
69 1 3 19.865772 10.000000 0.000000 
70 1 3 20.302013 10.000000 0.000000 
71 1 3 20.738255 10.000000 0.000000 
72 1 3 21.174497 10.000000 0.000000 
73 1 3 21.610738 10.000000 0.000000 
74 1 3 22.046980 10.000000 0.000000 
75 1 3 22.483221 10.000000 0.000000 
76 1 3 22.919463 10.000000 0.000000 
77 1 3 23.355705 10.000000 0.000000 
78 1 3 23.791946 10.000000 0.000000 
79 1 3 24.228188 10.000000 0.000000 
80 1 3 24.664430 10.000000 0.000000 
81 1 3 25.100671 10.000000 0.000000 
82 1 3 25.536913 10.000000 0.000000 
83 1 3 25.973154 10.000000 0.000000 
84 1 3 26.409396 10.000000 0.000000 
85 1 3 26.845638 10.000000 0.000000 
86 1 3 27.281879 10.000000 0.000000 
87 1 3 27.718121 10.000000 0.000000 
88 1 3 28.154362 10.000000 0.000000 
89 1 3 28.590604 10.000000 0.000000 
90 1 3 29.026846 10.000000 0.000000 
91 1 3 29.463087 10.000000 0.000000 
92 1 3 29.899329 10.000000 0.000000 
93 1 3 30.335570 10.000000 0.000000 
94 1 3 30.771812 10.000000 0.000000 
95 1 3 31.208054 10.000000 0.000000 
96 1 3 31.644295 10.000000 0.000000 
97 1 3 32.080537 10.000000 0.000000 
98 1 3 32.516779 10.000000 0.000000 
99 1 3 32.953020 10.000000 0.000000 
100 1 3 33.389262 10.000000 0.000000 
101 1 3 33.825503 10.000000 0.000000 
102 1 3 34.261745 10.000000 0.000000 
103 1 3 34.697987 10.000000 0.000000 
104 1 3 35.134228 10.000000 0.000000 
105 1 3 35.570470 10.000000 0.000000 
106 1 3 36.006711 10.000000 0.000000 
107 1 3 36.442953 10.000000 0.000000 
108 1 3 36.879195 10.000000 0.000000 
109 1 3 37.315436 10.000000 0.000000 
110 1 3 37.751678 10.000000 0.000000 
111 1 3 38.187919 10.000000 0.000000 
112 1 3 38.624161 10.000000 0.000000 
113 1 3 39.060403 10.000000 0.000000 
114 1 3 39.496644 10.000000 0.000000 
115 1 3 39.932886 10.000000 0.000000 
116 1 3 40.369128 10.000000 0.000000 
117 1 3 40.805369 10.000000 0.000000 
118 1 3 41.241611 10.000000 0.000000 
119 1 3 41.677852 10.000000 0.000000 
120 1 3 42.114094 10.000000 0.000000 
121 1 3 42.550336 10.000000 0.000000 
122 1 3 42.986577 10.000000 0.000000 
123 1 3 43.422819 10.000000 0.000000 
124 1 3 43.859060 10.000000 0.000000 
125 1 3 44.295302 10.000000 0.000000 
126 1 3 44.731544 10.000000 0.000000 
127 1 3 45.167785 10.000000 0.000000 
128 1 3 45.604027 10.000000 0.000000 
129 1 3 46.040268 10.000000 0.000000 
130 1 3 46.476510 10.000000 0.000000 
131 1 3 46.912752 10.000000 0.000000 
132 1 3 47.348993 10.000000 0.000000 
133 1 3 47.785235 10.000000 0.000000 
134 1 3 48.221477 10.000000 0.000000 
135 1 3 48.657718 10.000000 0.000000 
136 1 3 49.093960 10.000000 0.000000 
137 1 3 49.530201 10.000000 0.000000 
138 1 3 49.966443 10.000000 0.000000 
139 1 3 50.402685 10.000000 0.000000 
140 1 3 50.838926 10.000000 0.000000 
141 1 3 51.275168 10.000000 0.000000 
142 1 3 51.711409 10.000000 0.000000 
143 1 3 52.147651 10.000000 0.000000 
144 1 3 52.583893 10.000000 0.000000 
145 1 3 53.020134 10.000000 0.000000 
146 1 3 53.456376 10.000000 0.000000 
147 1 3 53.892617 10.000000 0.000000 
148 1 3 54.328859 10.000000 0.000000 
149 1 3 54.765101 10.000000 0.000000 
150 1 3 55.201342 10.000000 0.000000 
151 1 3 55.637584 10.000000 0.000000 
152 1 3 56.073826 10.000000 0.000000 
153 1 3 56.510067 10.000000 0.000000 
154 1 3 56.946309 10.000000 0.000000 
155 1 3 57.382550 10.000000 0.000000 
156 1 3 57.818792 10.000000 0.000000 
157 1 3 58.255034 10.000000 0.000000 
158 1 3 58.691275 10.000000 0.000000 
159 1 3 59.127517 10.000000 0.000000 
160 1 3 59.563758 10.000000 0.000000 
161 1 3 60.000000 10.000000 0.000000 
162 1 3 -5.000000 -10.000000 0.000000 
163 1 3 -4.563758 -10.000000 0.000000 
164 1 3 -4.127517 -10.000000 0.000000 
165 1 3 -3.691275 -10.000000 0.000000 
166 1 3 -3.255034 -10.000000 0.000000 
167 1 3 -2.818792 -10.000000 0.000000 
168 1 3 -2.382550 -10.000000 0.000000 
169 1 3 -1.946309 -10.000000 0.000000 
170 1 3 -1.510067 -10.000000 0.000000 
171 1 3 -1.073826 -10.000000 0.000000 
172 1 3 -0.637584 -10.000000 0.000000 
173 1 3 -0.201342 -10.000000 0.000000 
174 1 3 0.234899 -10.000000 0.000000 
175 1 3 0.671141 -10.000000 0.000000 
176 1 3 1.107383 -10.000000 0.000000 
177 1 3 1.543624 -10.000000 0.000000 
178 1 3 1.979866 -10.000000 0.000000 
179 1 3 2.416107 -10.000000 0.000000 
180 1 3 2.852349 -10.000000 0.000000 
181 1 3 3.288591 -10.000000 0.000000 
182 1 3 3.724832 -10.000000 0.000000 
183 1 3 4.161074 -10.000000 0.000000 
184 1 3 4.597315 -10.000000 0.000000 
185 1 3 5.033557 -10.000000 0.000000 
186 1 3 5.469799 -10.000000 0.000000 
187 1 3 5.906040 -10.000000 0.000000 
188 1 3 6.342282 -10.000000 0.000000 
189 1 3 6.778523 -10.000000 0.000000 
190 1 3 7.214765 -10.000000 0.000000 
191 1 3 7.651007 -10.000000 0.000000 
192 1 3 8.087248 -10.000000 0.000000 
193 1 3 8.523490 -10.000000 0.000000 
194 1 3 8.959732 -10.000000 0.000000 
195 1 3 9.395973 -10.000000 0.000000 
196 1 3 9.832215 -10.000000 0.000000 
197 1 3 10.268456 -10.000000 0.000000 
198 1 3 10.704698 -10.000000 0.000000 
199 1 3 11.140940 -10.000000 0.000000 
200 1 3 11.577181 -10.000000 0.000000 
201 1 3 12.013423 -10.000000 0.000000 
202 1 3 12.449664 -10.000000 0.000000 
203 1 3 12.885906 -10.000000 0.000000 
204 1 3 13.322148 -10.000000 0.000000 
205 1 3 13.758389 -10.000000 0.000000 
206 1 3 14.194631 -10.000000 0.000000 
207 1 3 14.630872 -10.000000 0.000000 
208 1 3 15.067114 -10.000000 0.000000 
209 1 3 15.503356 -10.000000 0.000000 
210 1 3 15.939597 -10.000000 0.000000 
211 1 3 16.375839 -10.000000 0.000000 
212 1 3 16.812081 -10.000000 0.000000 
213 1 3 17.248322 -10.000000 0.000000 
214 1 3 17.684564 -10.000000 0.000000 
215 1 3 18.120805 -10.000000 0.000000 
216 1 3 18.557047 -10.000000 0.000000 
217 1 3 18.993289 -10.000000 0.000000 
218 1 3 19.429530 -10.000000 0.000000 
219 1 3 19.865772 -10.000000 0.000000 
220 1 3 20.302013 -10.000000 0.000000 
221 1 3 20.738255 -10.000000 0.000000 
222 1 3 21.174497 -10.000000 0.000000 
223 1 3 21.610738 -10.000000 0.000000 
224 1 3 22.046980 -10.000000 0.000000 
225 1 3 22.483221 -10.000000 0.000000 
226 1 3 22.919463 -10.000000 0.000000 
227 1 3 23.355705 -10.000000 0.000000 
228 1 3 23.791946 -10.000000 0.000000 
229 1 3 24.228188 -10.000000 0.000000 
230 1 3 24.664430 -10.000000 0.000000 
231 1 3 25.100671 -10.000000 0.000000 
232 1 3 25.536913 -10.000000 0.000000 
233 1 3 25.973154 -10.000000 0.000000 
234 1 3 26.409396 -10.000000 0.000000 
235 1 3 26.845638 -10.000000 0.000000 
236 1 3 27.281879 -10.000000 0.000000 
237 1 3 27.718121 -10.000000 0.000000 
238 1 3 28.154362 -10.000000 0.000000 
239 1 3 28.590604 -10.000000 0.000000 
240 1 3 29.026846 -10.000000 0.000000 
241 1 3 29.463087 -10.000000 0.000000 
242 1 3 29.899329 -10.000000 0.000000 
243 1 3 30.335570 -10.000000 0.000000 
244 1 3 30.771812 -10.000000 0.000000 
245 1 3 31.208054 -10.000000 0.000000 
246 1 3 31.644295 -10.000000 0.000000 
247 1 3 32.080537 -10.000000 0.000000 
248 1 3 32.516779 -10.000000 0.000000 
249 1 3 32.953020 -10.000000 0.000000 
250 1 3 33.389262 -10.000000 0.000000 
251 1 3 33.825503 -10.000000 0.000000 
252 1 3 34.261745 -10.000000 0.000000 
253 1 3 34.697987 -10.000000 0.000000 
254 1 3 35.134228 -10.000000 0.000000 
255 1 3 35.570470 -10.000000 0.000000 
256 1 3 36.006711 -10.000000 0.000000 
257 1 3 36.442953 -10.000000 0.000000 
258 1 3 36.879195 -10.000000 0.000000 
259 1 3 37.315436 -10.000000 0.000000 
260 1 3 37.751678 -10.000000 0.000000 
261 1 3 38.187919 -10.000000 0.000000 
262 1 3 38.624161 -10.000000 0.000000 
263 1 3 39.060403 -10.000000 0.000000 
264 1 3 39.496644 -10.000000 0.000000 
265 1 3 39.932886 -10.000000 0.000000 
266 1 3 40.369128 -10.000000 0.000000 
267 1 3 40.805369 -10.000000 0.000000 
268 1 3 41.241611 -10.000000 0.000000 
269 1 3 41.677852 -10.000000 0.000000 
270 1 3 42.114094 -10.000000 0.000000 
271 1 3 42.550336 -10.000000 0.000000 
272 1 3 42.986577 -10.000000 0.000000 
273 1 3 43.422819 -10.000000 0.000000 
274 1 3 43.859060 -10.000000 0.000000 
275 1 3 44.295302 -10.000000 0.000000 
276 1 3 44.731544 -10.000000 0.000000 
277 1 3 45.167785 -10.000000 0.000000 
278 1 3 45.604027 -10.000000 0.000000 
279 1 3 46.040268 -10.000000 0.000000 
280 1 3 46.476510 -10.000000 0.000000 
281 1 3 46.912752 -10.000000 0.000000 
282 1 3 47.348993 -10.000000 0.000000 
283 1 3 47.785235 -10.000000 0.000000 
284 1 3 48.221477 -10.000000 0.000000 
285 1 3 48.657718 -10.000000 0.000000 
286 1 3 49.093960 -10.000000 0.000000 
287 1 3 49.530201 -10.000000 0.000000 
288 1 3 49.966443 -10.000000 0.000000 
289 1 3 50.402685 -10.000000 0.000000 
290 1 3 50.838926 -10.000000 0.000000 
291 1 3 51.275168 -10.000000 0.000000 
292 1 3 51.711409 -10.000000 0.000000 
293 1 3 52.147651 -10.000000 0.000000 
294 1 3 52.583893 -10.000000 0.000000 
295 1 3 53.020134 -10.000000 0.000000 
296 1 3 53.456376 -10.000000 0.000000 
297 1 3 53.892617 -10.000000 0.000000 
298 1 3 54.328859 -10.000000 0.000000 
299 1 3 54.765101 -10.000000 0.000000 
300 1 3 55.201342 -10.000000 0.000000 
301 1 3 55.637584 -10.000000 0.000000 
302 1 3 56.073826 -10.000000 0.000000 
303 1 3 56.510067 -10.000000 0.000000 
304 1 3 56.946309 -10.000000 0.000000 
305 1 3 57.382550 -10.000000 0.000000 
306 1 3 57.818792 -10.000000 0.000000 
307 1 3 58.255034 -10.000000 0.000000 
308 1 3 58.691275 -10.000000 0.000000 
309 1 3 59.127517 -10.000000 0.000000 
310 1 3 59.563758 -10.000000 0.000000 
311 1 3 60.000000 -10.000000 0.000000 

Bond Coeffs

1 1. 7.500000 #The bond between Nucleus and Elements; The K is 
2 1. 4.5 #Working7.81 #4.635255 
3 1. 1.505# 0.234899 
4 5. 1 # 0.400000 
5 -10. 19.5# 25.

Bonds

1 1 1 2 
2 1 1 3 
3 1 1 4 
4 1 1 5 
5 1 1 6 
6 1 1 7 
7 1 1 8 
8 1 1 9 
9 1 1 10 
10 1 1 11 
11 2 2 3 
12 2 3 4 
13 2 4 5 
14 2 5 6 
15 2 6 7 
16 2 7 8 
17 2 8 9 
18 2 9 10 
19 2 10 11 
20 2 11 2 
21 3 12 13 
22 3 162 163 
23 3 13 14 
24 3 163 164 
25 3 14 15 
26 3 164 165 
27 3 15 16 
28 3 165 166 
29 3 16 17 
30 3 166 167 
31 3 17 18 
32 3 167 168 
33 3 18 19 
34 3 168 169 
35 3 19 20 
36 3 169 170 
37 3 20 21 
38 3 170 171 
39 3 21 22 
40 3 171 172 
41 3 22 23 
42 3 172 173 
43 3 23 24 
44 3 173 174 
45 3 24 25 
46 3 174 175 
47 3 25 26 
48 3 175 176 
49 3 26 27 
50 3 176 177 
51 3 27 28 
52 3 177 178 
53 3 28 29 
54 3 178 179 
55 3 29 30 
56 3 179 180 
57 3 30 31 
58 3 180 181 
59 3 31 32 
60 3 181 182 
61 3 32 33 
62 3 182 183 
63 3 33 34 
64 3 183 184 
65 3 34 35 
66 3 184 185 
67 3 35 36 
68 3 185 186 
69 3 36 37 
70 3 186 187 
71 3 37 38 
72 3 187 188 
73 3 38 39 
74 3 188 189 
75 3 39 40 
76 3 189 190 
77 3 40 41 
78 3 190 191 
79 3 41 42 
80 3 191 192 
81 3 42 43 
82 3 192 193 
83 3 43 44 
84 3 193 194 
85 3 44 45 
86 3 194 195 
87 3 45 46 
88 3 195 196 
89 3 46 47 
90 3 196 197 
91 3 47 48 
92 3 197 198 
93 3 48 49 
94 3 198 199 
95 3 49 50 
96 3 199 200 
97 3 50 51 
98 3 200 201 
99 3 51 52 
100 3 201 202 
101 3 52 53 
102 3 202 203 
103 3 53 54 
104 3 203 204 
105 3 54 55 
106 3 204 205 
107 3 55 56 
108 3 205 206 
109 3 56 57 
110 3 206 207 
111 3 57 58 
112 3 207 208 
113 3 58 59 
114 3 208 209 
115 3 59 60 
116 3 209 210 
117 3 60 61 
118 3 210 211 
119 3 61 62 
120 3 211 212 
121 3 62 63 
122 3 212 213 
123 3 63 64 
124 3 213 214 
125 3 64 65 
126 3 214 215 
127 3 65 66 
128 3 215 216 
129 3 66 67 
130 3 216 217 
131 3 67 68 
132 3 217 218 
133 3 68 69 
134 3 218 219 
135 3 69 70 
136 3 219 220 
137 3 70 71 
138 3 220 221 
139 3 71 72 
140 3 221 222 
141 3 72 73 
142 3 222 223 
143 3 73 74 
144 3 223 224 
145 3 74 75 
146 3 224 225 
147 3 75 76 
148 3 225 226 
149 3 76 77 
150 3 226 227 
151 3 77 78 
152 3 227 228 
153 3 78 79 
154 3 228 229 
155 3 79 80 
156 3 229 230 
157 3 80 81 
158 3 230 231 
159 3 81 82 
160 3 231 232 
161 3 82 83 
162 3 232 233 
163 3 83 84 
164 3 233 234 
165 3 84 85 
166 3 234 235 
167 3 85 86 
168 3 235 236 
169 3 86 87 
170 3 236 237 
171 3 87 88 
172 3 237 238 
173 3 88 89 
174 3 238 239 
175 3 89 90 
176 3 239 240 
177 3 90 91 
178 3 240 241 
179 3 91 92 
180 3 241 242 
181 3 92 93 
182 3 242 243 
183 3 93 94 
184 3 243 244 
185 3 94 95 
186 3 244 245 
187 3 95 96 
188 3 245 246 
189 3 96 97 
190 3 246 247 
191 3 97 98 
192 3 247 248 
193 3 98 99 
194 3 248 249 
195 3 99 100 
196 3 249 250 
197 3 100 101 
198 3 250 251 
199 3 101 102 
200 3 251 252 
201 3 102 103 
202 3 252 253 
203 3 103 104 
204 3 253 254 
205 3 104 105 
206 3 254 255 
207 3 105 106 
208 3 255 256 
209 3 106 107 
210 3 256 257 
211 3 107 108 
212 3 257 258 
213 3 108 109 
214 3 258 259 
215 3 109 110 
216 3 259 260 
217 3 110 111 
218 3 260 261 
219 3 111 112 
220 3 261 262 
221 3 112 113 
222 3 262 263 
223 3 113 114 
224 3 263 264 
225 3 114 115 
226 3 264 265 
227 3 115 116 
228 3 265 266 
229 3 116 117 
230 3 266 267 
231 3 117 118 
232 3 267 268 
233 3 118 119 
234 3 268 269 
235 3 119 120 
236 3 269 270 
237 3 120 121 
238 3 270 271 
239 3 121 122 
240 3 271 272 
241 3 122 123 
242 3 272 273 
243 3 123 124 
244 3 273 274 
245 3 124 125 
246 3 274 275 
247 3 125 126 
248 3 275 276 
249 3 126 127 
250 3 276 277 
251 3 127 128 
252 3 277 278 
253 3 128 129 
254 3 278 279 
255 3 129 130 
256 3 279 280 
257 3 130 131 
258 3 280 281 
259 3 131 132 
260 3 281 282 
261 3 132 133 
262 3 282 283 
263 3 133 134 
264 3 283 284 
265 3 134 135 
266 3 284 285 
267 3 135 136 
268 3 285 286 
269 3 136 137 
270 3 286 287 
271 3 137 138 
272 3 287 288 
273 3 138 139 
274 3 288 289 
275 3 139 140 
276 3 289 290 
277 3 140 141 
278 3 290 291 
279 3 141 142 
280 3 291 292 
281 3 142 143 
282 3 292 293 
283 3 143 144 
284 3 293 294 
285 3 144 145 
286 3 294 295 
287 3 145 146 
288 3 295 296 
289 3 146 147 
290 3 296 297 
291 3 147 148 
292 3 297 298 
293 3 148 149 
294 3 298 299 
295 3 149 150 
296 3 299 300 
297 3 150 151 
298 3 300 301 
299 3 151 152 
300 3 301 302 
301 3 152 153 
302 3 302 303 
303 3 153 154 
304 3 303 304 
305 3 154 155 
306 3 304 305 
307 3 155 156 
308 3 305 306 
309 3 156 157 
310 3 306 307 
311 3 157 158 
312 3 307 308 
313 3 158 159 
314 3 308 309 
315 3 159 160 
316 3 309 310 
317 3 160 161 
318 3 310 311 
